+ 0 0 4 tcp 40 ------- 0 0.0 2.0 0 0
- 0 0 4 tcp 40 ------- 0 0.0 2.0 0 0
r 0.002032 0 4 tcp 40 ------- 0 0.0 2.0 0 0
+ 0.002032 4 5 tcp 40 ------- 0 0.0 2.0 0 0
- 0.002032 4 5 tcp 40 ------- 0 0.0 2.0 0 0
r 0.022245 4 5 tcp 40 ------- 0 0.0 2.0 0 0
+ 0.022245 5 2 tcp 40 ------- 0 0.0 2.0 0 0
- 0.022245 5 2 tcp 40 ------- 0 0.0 2.0 0 0
r 0.026277 5 2 tcp 40 ------- 0 0.0 2.0 0 0
+ 0.026277 2 5 ack 40 ------- 0 2.0 0.0 0 1
- 0.026277 2 5 ack 40 ------- 0 2.0 0.0 0 1
r 0.030309 2 5 ack 40 ------- 0 2.0 0.0 0 1
+ 0.030309 5 4 ack 40 ------- 0 2.0 0.0 0 1
- 0.030309 5 4 ack 40 ------- 0 2.0 0.0 0 1
r 0.050523 5 4 ack 40 ------- 0 2.0 0.0 0 1
+ 0.050523 4 0 ack 40 ------- 0 2.0 0.0 0 1
- 0.050523 4 0 ack 40 ------- 0 2.0 0.0 0 1
r 0.052555 4 0 ack 40 ------- 0 2.0 0.0 0 1
+ 0.052555 0 4 tcp 1040 ------- 0 0.0 2.0 1 2
- 0.052555 0 4 tcp 1040 ------- 0 0.0 2.0 1 2
+ 0.052555 0 4 tcp 1040 ------- 0 0.0 2.0 2 3
- 0.053387 0 4 tcp 1040 ------- 0 0.0 2.0 2 3
r 0.055387 0 4 tcp 1040 ------- 0 0.0 2.0 1 2
+ 0.055387 4 5 tcp 1040 ------- 0 0.0 2.0 1 2
- 0.055387 4 5 tcp 1040 ------- 0 0.0 2.0 1 2
r 0.056219 0 4 tcp 1040 ------- 0 0.0 2.0 2 3
+ 0.056219 4 5 tcp 1040 ------- 0 0.0 2.0 2 3
- 0.060933 4 5 tcp 1040 ------- 0 0.0 2.0 2 3
r 0.080933 4 5 tcp 1040 ------- 0 0.0 2.0 1 2
+ 0.080933 5 2 tcp 1040 ------- 0 0.0 2.0 1 2
- 0.080933 5 2 tcp 1040 ------- 0 0.0 2.0 1 2
r 0.085765 5 2 tcp 1040 ------- 0 0.0 2.0 1 2
+ 0.085765 2 5 ack 40 ------- 0 2.0 0.0 1 4
- 0.085765 2 5 ack 40 ------- 0 2.0 0.0 1 4
r 0.08648 4 5 tcp 1040 ------- 0 0.0 2.0 2 3
+ 0.08648 5 2 tcp 1040 ------- 0 0.0 2.0 2 3
- 0.08648 5 2 tcp 1040 ------- 0 0.0 2.0 2 3
r 0.089797 2 5 ack 40 ------- 0 2.0 0.0 1 4
+ 0.089797 5 4 ack 40 ------- 0 2.0 0.0 1 4
- 0.089797 5 4 ack 40 ------- 0 2.0 0.0 1 4
r 0.091312 5 2 tcp 1040 ------- 0 0.0 2.0 2 3
+ 0.091312 2 5 ack 40 ------- 0 2.0 0.0 2 5
- 0.091312 2 5 ack 40 ------- 0 2.0 0.0 2 5
r 0.095344 2 5 ack 40 ------- 0 2.0 0.0 2 5
+ 0.095344 5 4 ack 40 ------- 0 2.0 0.0 2 5
- 0.095344 5 4 ack 40 ------- 0 2.0 0.0 2 5
r 0.110011 5 4 ack 40 ------- 0 2.0 0.0 1 4
+ 0.110011 4 0 ack 40 ------- 0 2.0 0.0 1 4
- 0.110011 4 0 ack 40 ------- 0 2.0 0.0 1 4
r 0.112043 4 0 ack 40 ------- 0 2.0 0.0 1 4
+ 0.112043 0 4 tcp 1040 ------- 0 0.0 2.0 3 6
- 0.112043 0 4 tcp 1040 ------- 0 0.0 2.0 3 6
+ 0.112043 0 4 tcp 1040 ------- 0 0.0 2.0 4 7
- 0.112875 0 4 tcp 1040 ------- 0 0.0 2.0 4 7
r 0.114875 0 4 tcp 1040 ------- 0 0.0 2.0 3 6
+ 0.114875 4 5 tcp 1040 ------- 0 0.0 2.0 3 6
- 0.114875 4 5 tcp 1040 ------- 0 0.0 2.0 3 6
r 0.115557 5 4 ack 40 ------- 0 2.0 0.0 2 5
+ 0.115557 4 0 ack 40 ------- 0 2.0 0.0 2 5
- 0.115557 4 0 ack 40 ------- 0 2.0 0.0 2 5
r 0.115707 0 4 tcp 1040 ------- 0 0.0 2.0 4 7
+ 0.115707 4 5 tcp 1040 ------- 0 0.0 2.0 4 7
r 0.117589 4 0 ack 40 ------- 0 2.0 0.0 2 5
+ 0.117589 0 4 tcp 1040 ------- 0 0.0 2.0 5 8
- 0.117589 0 4 tcp 1040 ------- 0 0.0 2.0 5 8
+ 0.117589 0 4 tcp 1040 ------- 0 0.0 2.0 6 9
- 0.118421 0 4 tcp 1040 ------- 0 0.0 2.0 6 9
- 0.120421 4 5 tcp 1040 ------- 0 0.0 2.0 4 7
r 0.120421 0 4 tcp 1040 ------- 0 0.0 2.0 5 8
+ 0.120421 4 5 tcp 1040 ------- 0 0.0 2.0 5 8
r 0.121253 0 4 tcp 1040 ------- 0 0.0 2.0 6 9
+ 0.121253 4 5 tcp 1040 ------- 0 0.0 2.0 6 9
- 0.125968 4 5 tcp 1040 ------- 0 0.0 2.0 5 8
- 0.131515 4 5 tcp 1040 ------- 0 0.0 2.0 6 9
r 0.140421 4 5 tcp 1040 ------- 0 0.0 2.0 3 6
+ 0.140421 5 2 tcp 1040 ------- 0 0.0 2.0 3 6
- 0.140421 5 2 tcp 1040 ------- 0 0.0 2.0 3 6
r 0.145253 5 2 tcp 1040 ------- 0 0.0 2.0 3 6
+ 0.145253 2 5 ack 40 ------- 0 2.0 0.0 3 10
- 0.145253 2 5 ack 40 ------- 0 2.0 0.0 3 10
r 0.145968 4 5 tcp 1040 ------- 0 0.0 2.0 4 7
+ 0.145968 5 2 tcp 1040 ------- 0 0.0 2.0 4 7
- 0.145968 5 2 tcp 1040 ------- 0 0.0 2.0 4 7
r 0.149285 2 5 ack 40 ------- 0 2.0 0.0 3 10
+ 0.149285 5 4 ack 40 ------- 0 2.0 0.0 3 10
- 0.149285 5 4 ack 40 ------- 0 2.0 0.0 3 10
r 0.1508 5 2 tcp 1040 ------- 0 0.0 2.0 4 7
+ 0.1508 2 5 ack 40 ------- 0 2.0 0.0 4 11
- 0.1508 2 5 ack 40 ------- 0 2.0 0.0 4 11
r 0.151515 4 5 tcp 1040 ------- 0 0.0 2.0 5 8
+ 0.151515 5 2 tcp 1040 ------- 0 0.0 2.0 5 8
- 0.151515 5 2 tcp 1040 ------- 0 0.0 2.0 5 8
r 0.154832 2 5 ack 40 ------- 0 2.0 0.0 4 11
+ 0.154832 5 4 ack 40 ------- 0 2.0 0.0 4 11
- 0.154832 5 4 ack 40 ------- 0 2.0 0.0 4 11
r 0.156347 5 2 tcp 1040 ------- 0 0.0 2.0 5 8
+ 0.156347 2 5 ack 40 ------- 0 2.0 0.0 5 12
- 0.156347 2 5 ack 40 ------- 0 2.0 0.0 5 12
r 0.157061 4 5 tcp 1040 ------- 0 0.0 2.0 6 9
+ 0.157061 5 2 tcp 1040 ------- 0 0.0 2.0 6 9
- 0.157061 5 2 tcp 1040 ------- 0 0.0 2.0 6 9
r 0.160379 2 5 ack 40 ------- 0 2.0 0.0 5 12
+ 0.160379 5 4 ack 40 ------- 0 2.0 0.0 5 12
- 0.160379 5 4 ack 40 ------- 0 2.0 0.0 5 12
r 0.161893 5 2 tcp 1040 ------- 0 0.0 2.0 6 9
+ 0.161893 2 5 ack 40 ------- 0 2.0 0.0 6 13
- 0.161893 2 5 ack 40 ------- 0 2.0 0.0 6 13
r 0.165925 2 5 ack 40 ------- 0 2.0 0.0 6 13
+ 0.165925 5 4 ack 40 ------- 0 2.0 0.0 6 13
- 0.165925 5 4 ack 40 ------- 0 2.0 0.0 6 13
r 0.169499 5 4 ack 40 ------- 0 2.0 0.0 3 10
+ 0.169499 4 0 ack 40 ------- 0 2.0 0.0 3 10
- 0.169499 4 0 ack 40 ------- 0 2.0 0.0 3 10
r 0.171531 4 0 ack 40 ------- 0 2.0 0.0 3 10
+ 0.171531 0 4 tcp 1040 ------- 0 0.0 2.0 7 14
- 0.171531 0 4 tcp 1040 ------- 0 0.0 2.0 7 14
+ 0.171531 0 4 tcp 1040 ------- 0 0.0 2.0 8 15
- 0.172363 0 4 tcp 1040 ------- 0 0.0 2.0 8 15
r 0.174363 0 4 tcp 1040 ------- 0 0.0 2.0 7 14
+ 0.174363 4 5 tcp 1040 ------- 0 0.0 2.0 7 14
- 0.174363 4 5 tcp 1040 ------- 0 0.0 2.0 7 14
r 0.175045 5 4 ack 40 ------- 0 2.0 0.0 4 11
+ 0.175045 4 0 ack 40 ------- 0 2.0 0.0 4 11
- 0.175045 4 0 ack 40 ------- 0 2.0 0.0 4 11
r 0.175195 0 4 tcp 1040 ------- 0 0.0 2.0 8 15
+ 0.175195 4 5 tcp 1040 ------- 0 0.0 2.0 8 15
r 0.177077 4 0 ack 40 ------- 0 2.0 0.0 4 11
+ 0.177077 0 4 tcp 1040 ------- 0 0.0 2.0 9 16
- 0.177077 0 4 tcp 1040 ------- 0 0.0 2.0 9 16
+ 0.177077 0 4 tcp 1040 ------- 0 0.0 2.0 10 17
- 0.177909 0 4 tcp 1040 ------- 0 0.0 2.0 10 17
- 0.179909 4 5 tcp 1040 ------- 0 0.0 2.0 8 15
r 0.179909 0 4 tcp 1040 ------- 0 0.0 2.0 9 16
+ 0.179909 4 5 tcp 1040 ------- 0 0.0 2.0 9 16
r 0.180592 5 4 ack 40 ------- 0 2.0 0.0 5 12
+ 0.180592 4 0 ack 40 ------- 0 2.0 0.0 5 12
- 0.180592 4 0 ack 40 ------- 0 2.0 0.0 5 12
r 0.180741 0 4 tcp 1040 ------- 0 0.0 2.0 10 17
+ 0.180741 4 5 tcp 1040 ------- 0 0.0 2.0 10 17
r 0.182624 4 0 ack 40 ------- 0 2.0 0.0 5 12
+ 0.182624 0 4 tcp 1040 ------- 0 0.0 2.0 11 18
- 0.182624 0 4 tcp 1040 ------- 0 0.0 2.0 11 18
+ 0.182624 0 4 tcp 1040 ------- 0 0.0 2.0 12 19
- 0.183456 0 4 tcp 1040 ------- 0 0.0 2.0 12 19
r 0.185456 0 4 tcp 1040 ------- 0 0.0 2.0 11 18
+ 0.185456 4 5 tcp 1040 ------- 0 0.0 2.0 11 18
- 0.185456 4 5 tcp 1040 ------- 0 0.0 2.0 9 16
r 0.186139 5 4 ack 40 ------- 0 2.0 0.0 6 13
+ 0.186139 4 0 ack 40 ------- 0 2.0 0.0 6 13
- 0.186139 4 0 ack 40 ------- 0 2.0 0.0 6 13
r 0.186288 0 4 tcp 1040 ------- 0 0.0 2.0 12 19
+ 0.186288 4 5 tcp 1040 ------- 0 0.0 2.0 12 19
r 0.188171 4 0 ack 40 ------- 0 2.0 0.0 6 13
+ 0.188171 0 4 tcp 1040 ------- 0 0.0 2.0 13 20
- 0.188171 0 4 tcp 1040 ------- 0 0.0 2.0 13 20
+ 0.188171 0 4 tcp 1040 ------- 0 0.0 2.0 14 21
- 0.189003 0 4 tcp 1040 ------- 0 0.0 2.0 14 21
r 0.191003 0 4 tcp 1040 ------- 0 0.0 2.0 13 20
+ 0.191003 4 5 tcp 1040 ------- 0 0.0 2.0 13 20
- 0.191003 4 5 tcp 1040 ------- 0 0.0 2.0 10 17
r 0.191835 0 4 tcp 1040 ------- 0 0.0 2.0 14 21
+ 0.191835 4 5 tcp 1040 ------- 0 0.0 2.0 14 21
- 0.196549 4 5 tcp 1040 ------- 0 0.0 2.0 11 18
r 0.199909 4 5 tcp 1040 ------- 0 0.0 2.0 7 14
+ 0.199909 5 2 tcp 1040 ------- 0 0.0 2.0 7 14
- 0.199909 5 2 tcp 1040 ------- 0 0.0 2.0 7 14
- 0.202096 4 5 tcp 1040 ------- 0 0.0 2.0 12 19
r 0.204741 5 2 tcp 1040 ------- 0 0.0 2.0 7 14
+ 0.204741 2 5 ack 40 ------- 0 2.0 0.0 7 22
- 0.204741 2 5 ack 40 ------- 0 2.0 0.0 7 22
r 0.205456 4 5 tcp 1040 ------- 0 0.0 2.0 8 15
+ 0.205456 5 2 tcp 1040 ------- 0 0.0 2.0 8 15
- 0.205456 5 2 tcp 1040 ------- 0 0.0 2.0 8 15
- 0.207643 4 5 tcp 1040 ------- 0 0.0 2.0 13 20
r 0.208773 2 5 ack 40 ------- 0 2.0 0.0 7 22
+ 0.208773 5 4 ack 40 ------- 0 2.0 0.0 7 22
- 0.208773 5 4 ack 40 ------- 0 2.0 0.0 7 22
r 0.210288 5 2 tcp 1040 ------- 0 0.0 2.0 8 15
+ 0.210288 2 5 ack 40 ------- 0 2.0 0.0 8 23
- 0.210288 2 5 ack 40 ------- 0 2.0 0.0 8 23
r 0.211003 4 5 tcp 1040 ------- 0 0.0 2.0 9 16
+ 0.211003 5 2 tcp 1040 ------- 0 0.0 2.0 9 16
- 0.211003 5 2 tcp 1040 ------- 0 0.0 2.0 9 16
- 0.213189 4 5 tcp 1040 ------- 0 0.0 2.0 14 21
r 0.21432 2 5 ack 40 ------- 0 2.0 0.0 8 23
+ 0.21432 5 4 ack 40 ------- 0 2.0 0.0 8 23
- 0.21432 5 4 ack 40 ------- 0 2.0 0.0 8 23
r 0.215835 5 2 tcp 1040 ------- 0 0.0 2.0 9 16
+ 0.215835 2 5 ack 40 ------- 0 2.0 0.0 9 24
- 0.215835 2 5 ack 40 ------- 0 2.0 0.0 9 24
r 0.216549 4 5 tcp 1040 ------- 0 0.0 2.0 10 17
+ 0.216549 5 2 tcp 1040 ------- 0 0.0 2.0 10 17
- 0.216549 5 2 tcp 1040 ------- 0 0.0 2.0 10 17
r 0.219867 2 5 ack 40 ------- 0 2.0 0.0 9 24
+ 0.219867 5 4 ack 40 ------- 0 2.0 0.0 9 24
- 0.219867 5 4 ack 40 ------- 0 2.0 0.0 9 24
r 0.221381 5 2 tcp 1040 ------- 0 0.0 2.0 10 17
+ 0.221381 2 5 ack 40 ------- 0 2.0 0.0 10 25
- 0.221381 2 5 ack 40 ------- 0 2.0 0.0 10 25
r 0.222096 4 5 tcp 1040 ------- 0 0.0 2.0 11 18
+ 0.222096 5 2 tcp 1040 ------- 0 0.0 2.0 11 18
- 0.222096 5 2 tcp 1040 ------- 0 0.0 2.0 11 18
r 0.225413 2 5 ack 40 ------- 0 2.0 0.0 10 25
+ 0.225413 5 4 ack 40 ------- 0 2.0 0.0 10 25
- 0.225413 5 4 ack 40 ------- 0 2.0 0.0 10 25
r 0.226928 5 2 tcp 1040 ------- 0 0.0 2.0 11 18
+ 0.226928 2 5 ack 40 ------- 0 2.0 0.0 11 26
- 0.226928 2 5 ack 40 ------- 0 2.0 0.0 11 26
r 0.227643 4 5 tcp 1040 ------- 0 0.0 2.0 12 19
+ 0.227643 5 2 tcp 1040 ------- 0 0.0 2.0 12 19
- 0.227643 5 2 tcp 1040 ------- 0 0.0 2.0 12 19
r 0.228987 5 4 ack 40 ------- 0 2.0 0.0 7 22
+ 0.228987 4 0 ack 40 ------- 0 2.0 0.0 7 22
- 0.228987 4 0 ack 40 ------- 0 2.0 0.0 7 22
r 0.23096 2 5 ack 40 ------- 0 2.0 0.0 11 26
+ 0.23096 5 4 ack 40 ------- 0 2.0 0.0 11 26
- 0.23096 5 4 ack 40 ------- 0 2.0 0.0 11 26
r 0.231019 4 0 ack 40 ------- 0 2.0 0.0 7 22
+ 0.231019 0 4 tcp 1040 ------- 0 0.0 2.0 15 27
- 0.231019 0 4 tcp 1040 ------- 0 0.0 2.0 15 27
+ 0.231019 0 4 tcp 1040 ------- 0 0.0 2.0 16 28
- 0.231851 0 4 tcp 1040 ------- 0 0.0 2.0 16 28
r 0.232475 5 2 tcp 1040 ------- 0 0.0 2.0 12 19
+ 0.232475 2 5 ack 40 ------- 0 2.0 0.0 12 29
- 0.232475 2 5 ack 40 ------- 0 2.0 0.0 12 29
r 0.233189 4 5 tcp 1040 ------- 0 0.0 2.0 13 20
+ 0.233189 5 2 tcp 1040 ------- 0 0.0 2.0 13 20
- 0.233189 5 2 tcp 1040 ------- 0 0.0 2.0 13 20
r 0.233851 0 4 tcp 1040 ------- 0 0.0 2.0 15 27
+ 0.233851 4 5 tcp 1040 ------- 0 0.0 2.0 15 27
- 0.233851 4 5 tcp 1040 ------- 0 0.0 2.0 15 27
r 0.234533 5 4 ack 40 ------- 0 2.0 0.0 8 23
+ 0.234533 4 0 ack 40 ------- 0 2.0 0.0 8 23
- 0.234533 4 0 ack 40 ------- 0 2.0 0.0 8 23
r 0.234683 0 4 tcp 1040 ------- 0 0.0 2.0 16 28
+ 0.234683 4 5 tcp 1040 ------- 0 0.0 2.0 16 28
r 0.236507 2 5 ack 40 ------- 0 2.0 0.0 12 29
+ 0.236507 5 4 ack 40 ------- 0 2.0 0.0 12 29
- 0.236507 5 4 ack 40 ------- 0 2.0 0.0 12 29
r 0.236565 4 0 ack 40 ------- 0 2.0 0.0 8 23
+ 0.236565 0 4 tcp 1040 ------- 0 0.0 2.0 17 30
- 0.236565 0 4 tcp 1040 ------- 0 0.0 2.0 17 30
+ 0.236565 0 4 tcp 1040 ------- 0 0.0 2.0 18 31
- 0.237397 0 4 tcp 1040 ------- 0 0.0 2.0 18 31
r 0.238021 5 2 tcp 1040 ------- 0 0.0 2.0 13 20
+ 0.238021 2 5 ack 40 ------- 0 2.0 0.0 13 32
- 0.238021 2 5 ack 40 ------- 0 2.0 0.0 13 32
r 0.238736 4 5 tcp 1040 ------- 0 0.0 2.0 14 21
+ 0.238736 5 2 tcp 1040 ------- 0 0.0 2.0 14 21
- 0.238736 5 2 tcp 1040 ------- 0 0.0 2.0 14 21
- 0.239397 4 5 tcp 1040 ------- 0 0.0 2.0 16 28
r 0.239397 0 4 tcp 1040 ------- 0 0.0 2.0 17 30
+ 0.239397 4 5 tcp 1040 ------- 0 0.0 2.0 17 30
r 0.24008 5 4 ack 40 ------- 0 2.0 0.0 9 24
+ 0.24008 4 0 ack 40 ------- 0 2.0 0.0 9 24
- 0.24008 4 0 ack 40 ------- 0 2.0 0.0 9 24
r 0.240229 0 4 tcp 1040 ------- 0 0.0 2.0 18 31
+ 0.240229 4 5 tcp 1040 ------- 0 0.0 2.0 18 31
r 0.242053 2 5 ack 40 ------- 0 2.0 0.0 13 32
+ 0.242053 5 4 ack 40 ------- 0 2.0 0.0 13 32
- 0.242053 5 4 ack 40 ------- 0 2.0 0.0 13 32
r 0.242112 4 0 ack 40 ------- 0 2.0 0.0 9 24
+ 0.242112 0 4 tcp 1040 ------- 0 0.0 2.0 19 33
- 0.242112 0 4 tcp 1040 ------- 0 0.0 2.0 19 33
+ 0.242112 0 4 tcp 1040 ------- 0 0.0 2.0 20 34
- 0.242944 0 4 tcp 1040 ------- 0 0.0 2.0 20 34
r 0.243568 5 2 tcp 1040 ------- 0 0.0 2.0 14 21
+ 0.243568 2 5 ack 40 ------- 0 2.0 0.0 14 35
- 0.243568 2 5 ack 40 ------- 0 2.0 0.0 14 35
- 0.244944 4 5 tcp 1040 ------- 0 0.0 2.0 17 30
r 0.244944 0 4 tcp 1040 ------- 0 0.0 2.0 19 33
+ 0.244944 4 5 tcp 1040 ------- 0 0.0 2.0 19 33
r 0.245627 5 4 ack 40 ------- 0 2.0 0.0 10 25
+ 0.245627 4 0 ack 40 ------- 0 2.0 0.0 10 25
- 0.245627 4 0 ack 40 ------- 0 2.0 0.0 10 25
r 0.245776 0 4 tcp 1040 ------- 0 0.0 2.0 20 34
+ 0.245776 4 5 tcp 1040 ------- 0 0.0 2.0 20 34
r 0.2476 2 5 ack 40 ------- 0 2.0 0.0 14 35
+ 0.2476 5 4 ack 40 ------- 0 2.0 0.0 14 35
- 0.2476 5 4 ack 40 ------- 0 2.0 0.0 14 35
r 0.247659 4 0 ack 40 ------- 0 2.0 0.0 10 25
+ 0.247659 0 4 tcp 1040 ------- 0 0.0 2.0 21 36
- 0.247659 0 4 tcp 1040 ------- 0 0.0 2.0 21 36
+ 0.247659 0 4 tcp 1040 ------- 0 0.0 2.0 22 37
- 0.248491 0 4 tcp 1040 ------- 0 0.0 2.0 22 37
- 0.250491 4 5 tcp 1040 ------- 0 0.0 2.0 18 31
r 0.250491 0 4 tcp 1040 ------- 0 0.0 2.0 21 36
+ 0.250491 4 5 tcp 1040 ------- 0 0.0 2.0 21 36
r 0.251173 5 4 ack 40 ------- 0 2.0 0.0 11 26
+ 0.251173 4 0 ack 40 ------- 0 2.0 0.0 11 26
- 0.251173 4 0 ack 40 ------- 0 2.0 0.0 11 26
r 0.251323 0 4 tcp 1040 ------- 0 0.0 2.0 22 37
+ 0.251323 4 5 tcp 1040 ------- 0 0.0 2.0 22 37
r 0.253205 4 0 ack 40 ------- 0 2.0 0.0 11 26
+ 0.253205 0 4 tcp 1040 ------- 0 0.0 2.0 23 38
- 0.253205 0 4 tcp 1040 ------- 0 0.0 2.0 23 38
+ 0.253205 0 4 tcp 1040 ------- 0 0.0 2.0 24 39
- 0.254037 0 4 tcp 1040 ------- 0 0.0 2.0 24 39
- 0.256037 4 5 tcp 1040 ------- 0 0.0 2.0 19 33
r 0.256037 0 4 tcp 1040 ------- 0 0.0 2.0 23 38
+ 0.256037 4 5 tcp 1040 ------- 0 0.0 2.0 23 38
r 0.25672 5 4 ack 40 ------- 0 2.0 0.0 12 29
+ 0.25672 4 0 ack 40 ------- 0 2.0 0.0 12 29
- 0.25672 4 0 ack 40 ------- 0 2.0 0.0 12 29
r 0.256869 0 4 tcp 1040 ------- 0 0.0 2.0 24 39
+ 0.256869 4 5 tcp 1040 ------- 0 0.0 2.0 24 39
r 0.258752 4 0 ack 40 ------- 0 2.0 0.0 12 29
+ 0.258752 0 4 tcp 1040 ------- 0 0.0 2.0 25 40
- 0.258752 0 4 tcp 1040 ------- 0 0.0 2.0 25 40
+ 0.258752 0 4 tcp 1040 ------- 0 0.0 2.0 26 41
r 0.259397 4 5 tcp 1040 ------- 0 0.0 2.0 15 27
+ 0.259397 5 2 tcp 1040 ------- 0 0.0 2.0 15 27
- 0.259397 5 2 tcp 1040 ------- 0 0.0 2.0 15 27
- 0.259584 0 4 tcp 1040 ------- 0 0.0 2.0 26 41
- 0.261584 4 5 tcp 1040 ------- 0 0.0 2.0 20 34
r 0.261584 0 4 tcp 1040 ------- 0 0.0 2.0 25 40
+ 0.261584 4 5 tcp 1040 ------- 0 0.0 2.0 25 40
r 0.262267 5 4 ack 40 ------- 0 2.0 0.0 13 32
+ 0.262267 4 0 ack 40 ------- 0 2.0 0.0 13 32
- 0.262267 4 0 ack 40 ------- 0 2.0 0.0 13 32
r 0.262416 0 4 tcp 1040 ------- 0 0.0 2.0 26 41
+ 0.262416 4 5 tcp 1040 ------- 0 0.0 2.0 26 41
r 0.264229 5 2 tcp 1040 ------- 0 0.0 2.0 15 27
+ 0.264229 2 5 ack 40 ------- 0 2.0 0.0 15 42
- 0.264229 2 5 ack 40 ------- 0 2.0 0.0 15 42
r 0.264299 4 0 ack 40 ------- 0 2.0 0.0 13 32
+ 0.264299 0 4 tcp 1040 ------- 0 0.0 2.0 27 43
- 0.264299 0 4 tcp 1040 ------- 0 0.0 2.0 27 43
+ 0.264299 0 4 tcp 1040 ------- 0 0.0 2.0 28 44
r 0.264944 4 5 tcp 1040 ------- 0 0.0 2.0 16 28
+ 0.264944 5 2 tcp 1040 ------- 0 0.0 2.0 16 28
- 0.264944 5 2 tcp 1040 ------- 0 0.0 2.0 16 28
- 0.265131 0 4 tcp 1040 ------- 0 0.0 2.0 28 44
- 0.267131 4 5 tcp 1040 ------- 0 0.0 2.0 21 36
r 0.267131 0 4 tcp 1040 ------- 0 0.0 2.0 27 43
+ 0.267131 4 5 tcp 1040 ------- 0 0.0 2.0 27 43
r 0.267813 5 4 ack 40 ------- 0 2.0 0.0 14 35
+ 0.267813 4 0 ack 40 ------- 0 2.0 0.0 14 35
- 0.267813 4 0 ack 40 ------- 0 2.0 0.0 14 35
r 0.267963 0 4 tcp 1040 ------- 0 0.0 2.0 28 44
+ 0.267963 4 5 tcp 1040 ------- 0 0.0 2.0 28 44
r 0.268261 2 5 ack 40 ------- 0 2.0 0.0 15 42
+ 0.268261 5 4 ack 40 ------- 0 2.0 0.0 15 42
- 0.268261 5 4 ack 40 ------- 0 2.0 0.0 15 42
r 0.269776 5 2 tcp 1040 ------- 0 0.0 2.0 16 28
+ 0.269776 2 5 ack 40 ------- 0 2.0 0.0 16 45
- 0.269776 2 5 ack 40 ------- 0 2.0 0.0 16 45
r 0.269845 4 0 ack 40 ------- 0 2.0 0.0 14 35
+ 0.269845 0 4 tcp 1040 ------- 0 0.0 2.0 29 46
- 0.269845 0 4 tcp 1040 ------- 0 0.0 2.0 29 46
r 0.270491 4 5 tcp 1040 ------- 0 0.0 2.0 17 30
+ 0.270491 5 2 tcp 1040 ------- 0 0.0 2.0 17 30
- 0.270491 5 2 tcp 1040 ------- 0 0.0 2.0 17 30
- 0.272677 4 5 tcp 1040 ------- 0 0.0 2.0 22 37
r 0.272677 0 4 tcp 1040 ------- 0 0.0 2.0 29 46
+ 0.272677 4 5 tcp 1040 ------- 0 0.0 2.0 29 46
r 0.273808 2 5 ack 40 ------- 0 2.0 0.0 16 45
+ 0.273808 5 4 ack 40 ------- 0 2.0 0.0 16 45
- 0.273808 5 4 ack 40 ------- 0 2.0 0.0 16 45
r 0.275323 5 2 tcp 1040 ------- 0 0.0 2.0 17 30
+ 0.275323 2 5 ack 40 ------- 0 2.0 0.0 17 47
- 0.275323 2 5 ack 40 ------- 0 2.0 0.0 17 47
r 0.276037 4 5 tcp 1040 ------- 0 0.0 2.0 18 31
+ 0.276037 5 2 tcp 1040 ------- 0 0.0 2.0 18 31
- 0.276037 5 2 tcp 1040 ------- 0 0.0 2.0 18 31
- 0.278224 4 5 tcp 1040 ------- 0 0.0 2.0 23 38
r 0.279355 2 5 ack 40 ------- 0 2.0 0.0 17 47
+ 0.279355 5 4 ack 40 ------- 0 2.0 0.0 17 47
- 0.279355 5 4 ack 40 ------- 0 2.0 0.0 17 47
r 0.280869 5 2 tcp 1040 ------- 0 0.0 2.0 18 31
+ 0.280869 2 5 ack 40 ------- 0 2.0 0.0 18 48
- 0.280869 2 5 ack 40 ------- 0 2.0 0.0 18 48
r 0.281584 4 5 tcp 1040 ------- 0 0.0 2.0 19 33
+ 0.281584 5 2 tcp 1040 ------- 0 0.0 2.0 19 33
- 0.281584 5 2 tcp 1040 ------- 0 0.0 2.0 19 33
- 0.283771 4 5 tcp 1040 ------- 0 0.0 2.0 24 39
r 0.284901 2 5 ack 40 ------- 0 2.0 0.0 18 48
+ 0.284901 5 4 ack 40 ------- 0 2.0 0.0 18 48
- 0.284901 5 4 ack 40 ------- 0 2.0 0.0 18 48
r 0.286416 5 2 tcp 1040 ------- 0 0.0 2.0 19 33
+ 0.286416 2 5 ack 40 ------- 0 2.0 0.0 19 49
- 0.286416 2 5 ack 40 ------- 0 2.0 0.0 19 49
r 0.287131 4 5 tcp 1040 ------- 0 0.0 2.0 20 34
+ 0.287131 5 2 tcp 1040 ------- 0 0.0 2.0 20 34
- 0.287131 5 2 tcp 1040 ------- 0 0.0 2.0 20 34
r 0.288475 5 4 ack 40 ------- 0 2.0 0.0 15 42
+ 0.288475 4 0 ack 40 ------- 0 2.0 0.0 15 42
- 0.288475 4 0 ack 40 ------- 0 2.0 0.0 15 42
- 0.289317 4 5 tcp 1040 ------- 0 0.0 2.0 25 40
r 0.290448 2 5 ack 40 ------- 0 2.0 0.0 19 49
+ 0.290448 5 4 ack 40 ------- 0 2.0 0.0 19 49
- 0.290448 5 4 ack 40 ------- 0 2.0 0.0 19 49
r 0.290507 4 0 ack 40 ------- 0 2.0 0.0 15 42
+ 0.290507 0 4 tcp 1040 ------- 0 0.0 2.0 30 50
- 0.290507 0 4 tcp 1040 ------- 0 0.0 2.0 30 50
r 0.291963 5 2 tcp 1040 ------- 0 0.0 2.0 20 34
+ 0.291963 2 5 ack 40 ------- 0 2.0 0.0 20 51
- 0.291963 2 5 ack 40 ------- 0 2.0 0.0 20 51
r 0.292677 4 5 tcp 1040 ------- 0 0.0 2.0 21 36
+ 0.292677 5 2 tcp 1040 ------- 0 0.0 2.0 21 36
- 0.292677 5 2 tcp 1040 ------- 0 0.0 2.0 21 36
r 0.293339 0 4 tcp 1040 ------- 0 0.0 2.0 30 50
+ 0.293339 4 5 tcp 1040 ------- 0 0.0 2.0 30 50
r 0.294021 5 4 ack 40 ------- 0 2.0 0.0 16 45
+ 0.294021 4 0 ack 40 ------- 0 2.0 0.0 16 45
- 0.294021 4 0 ack 40 ------- 0 2.0 0.0 16 45
- 0.294864 4 5 tcp 1040 ------- 0 0.0 2.0 26 41
r 0.295995 2 5 ack 40 ------- 0 2.0 0.0 20 51
+ 0.295995 5 4 ack 40 ------- 0 2.0 0.0 20 51
- 0.295995 5 4 ack 40 ------- 0 2.0 0.0 20 51
r 0.296053 4 0 ack 40 ------- 0 2.0 0.0 16 45
+ 0.296053 0 4 tcp 1040 ------- 0 0.0 2.0 31 52
- 0.296053 0 4 tcp 1040 ------- 0 0.0 2.0 31 52
r 0.297509 5 2 tcp 1040 ------- 0 0.0 2.0 21 36
+ 0.297509 2 5 ack 40 ------- 0 2.0 0.0 21 53
- 0.297509 2 5 ack 40 ------- 0 2.0 0.0 21 53
r 0.298224 4 5 tcp 1040 ------- 0 0.0 2.0 22 37
+ 0.298224 5 2 tcp 1040 ------- 0 0.0 2.0 22 37
- 0.298224 5 2 tcp 1040 ------- 0 0.0 2.0 22 37
r 0.298885 0 4 tcp 1040 ------- 0 0.0 2.0 31 52
+ 0.298885 4 5 tcp 1040 ------- 0 0.0 2.0 31 52
r 0.299568 5 4 ack 40 ------- 0 2.0 0.0 17 47
+ 0.299568 4 0 ack 40 ------- 0 2.0 0.0 17 47
- 0.299568 4 0 ack 40 ------- 0 2.0 0.0 17 47
- 0.300411 4 5 tcp 1040 ------- 0 0.0 2.0 27 43
r 0.301541 2 5 ack 40 ------- 0 2.0 0.0 21 53
+ 0.301541 5 4 ack 40 ------- 0 2.0 0.0 21 53
- 0.301541 5 4 ack 40 ------- 0 2.0 0.0 21 53
r 0.3016 4 0 ack 40 ------- 0 2.0 0.0 17 47
+ 0.3016 0 4 tcp 1040 ------- 0 0.0 2.0 32 54
- 0.3016 0 4 tcp 1040 ------- 0 0.0 2.0 32 54
r 0.303056 5 2 tcp 1040 ------- 0 0.0 2.0 22 37
+ 0.303056 2 5 ack 40 ------- 0 2.0 0.0 22 55
- 0.303056 2 5 ack 40 ------- 0 2.0 0.0 22 55
r 0.303771 4 5 tcp 1040 ------- 0 0.0 2.0 23 38
+ 0.303771 5 2 tcp 1040 ------- 0 0.0 2.0 23 38
- 0.303771 5 2 tcp 1040 ------- 0 0.0 2.0 23 38
r 0.304432 0 4 tcp 1040 ------- 0 0.0 2.0 32 54
+ 0.304432 4 5 tcp 1040 ------- 0 0.0 2.0 32 54
r 0.305115 5 4 ack 40 ------- 0 2.0 0.0 18 48
+ 0.305115 4 0 ack 40 ------- 0 2.0 0.0 18 48
- 0.305115 4 0 ack 40 ------- 0 2.0 0.0 18 48
- 0.305957 4 5 tcp 1040 ------- 0 0.0 2.0 28 44
r 0.307088 2 5 ack 40 ------- 0 2.0 0.0 22 55
+ 0.307088 5 4 ack 40 ------- 0 2.0 0.0 22 55
- 0.307088 5 4 ack 40 ------- 0 2.0 0.0 22 55
r 0.307147 4 0 ack 40 ------- 0 2.0 0.0 18 48
+ 0.307147 0 4 tcp 1040 ------- 0 0.0 2.0 33 56
- 0.307147 0 4 tcp 1040 ------- 0 0.0 2.0 33 56
r 0.308603 5 2 tcp 1040 ------- 0 0.0 2.0 23 38
+ 0.308603 2 5 ack 40 ------- 0 2.0 0.0 23 57
- 0.308603 2 5 ack 40 ------- 0 2.0 0.0 23 57
r 0.309317 4 5 tcp 1040 ------- 0 0.0 2.0 24 39
+ 0.309317 5 2 tcp 1040 ------- 0 0.0 2.0 24 39
- 0.309317 5 2 tcp 1040 ------- 0 0.0 2.0 24 39
r 0.309979 0 4 tcp 1040 ------- 0 0.0 2.0 33 56
+ 0.309979 4 5 tcp 1040 ------- 0 0.0 2.0 33 56
r 0.310661 5 4 ack 40 ------- 0 2.0 0.0 19 49
+ 0.310661 4 0 ack 40 ------- 0 2.0 0.0 19 49
- 0.310661 4 0 ack 40 ------- 0 2.0 0.0 19 49
- 0.311504 4 5 tcp 1040 ------- 0 0.0 2.0 29 46
r 0.312635 2 5 ack 40 ------- 0 2.0 0.0 23 57
+ 0.312635 5 4 ack 40 ------- 0 2.0 0.0 23 57
- 0.312635 5 4 ack 40 ------- 0 2.0 0.0 23 57
r 0.312693 4 0 ack 40 ------- 0 2.0 0.0 19 49
+ 0.312693 0 4 tcp 1040 ------- 0 0.0 2.0 34 58
- 0.312693 0 4 tcp 1040 ------- 0 0.0 2.0 34 58
r 0.314149 5 2 tcp 1040 ------- 0 0.0 2.0 24 39
+ 0.314149 2 5 ack 40 ------- 0 2.0 0.0 24 59
- 0.314149 2 5 ack 40 ------- 0 2.0 0.0 24 59
r 0.314864 4 5 tcp 1040 ------- 0 0.0 2.0 25 40
+ 0.314864 5 2 tcp 1040 ------- 0 0.0 2.0 25 40
- 0.314864 5 2 tcp 1040 ------- 0 0.0 2.0 25 40
r 0.315525 0 4 tcp 1040 ------- 0 0.0 2.0 34 58
+ 0.315525 4 5 tcp 1040 ------- 0 0.0 2.0 34 58
r 0.316208 5 4 ack 40 ------- 0 2.0 0.0 20 51
+ 0.316208 4 0 ack 40 ------- 0 2.0 0.0 20 51
- 0.316208 4 0 ack 40 ------- 0 2.0 0.0 20 51
- 0.317051 4 5 tcp 1040 ------- 0 0.0 2.0 30 50
r 0.318181 2 5 ack 40 ------- 0 2.0 0.0 24 59
+ 0.318181 5 4 ack 40 ------- 0 2.0 0.0 24 59
- 0.318181 5 4 ack 40 ------- 0 2.0 0.0 24 59
r 0.31824 4 0 ack 40 ------- 0 2.0 0.0 20 51
+ 0.31824 0 4 tcp 1040 ------- 0 0.0 2.0 35 60
- 0.31824 0 4 tcp 1040 ------- 0 0.0 2.0 35 60
r 0.319696 5 2 tcp 1040 ------- 0 0.0 2.0 25 40
+ 0.319696 2 5 ack 40 ------- 0 2.0 0.0 25 61
- 0.319696 2 5 ack 40 ------- 0 2.0 0.0 25 61
r 0.320411 4 5 tcp 1040 ------- 0 0.0 2.0 26 41
+ 0.320411 5 2 tcp 1040 ------- 0 0.0 2.0 26 41
- 0.320411 5 2 tcp 1040 ------- 0 0.0 2.0 26 41
r 0.321072 0 4 tcp 1040 ------- 0 0.0 2.0 35 60
+ 0.321072 4 5 tcp 1040 ------- 0 0.0 2.0 35 60
r 0.321755 5 4 ack 40 ------- 0 2.0 0.0 21 53
+ 0.321755 4 0 ack 40 ------- 0 2.0 0.0 21 53
- 0.321755 4 0 ack 40 ------- 0 2.0 0.0 21 53
- 0.322597 4 5 tcp 1040 ------- 0 0.0 2.0 31 52
r 0.323728 2 5 ack 40 ------- 0 2.0 0.0 25 61
+ 0.323728 5 4 ack 40 ------- 0 2.0 0.0 25 61
- 0.323728 5 4 ack 40 ------- 0 2.0 0.0 25 61
r 0.323787 4 0 ack 40 ------- 0 2.0 0.0 21 53
+ 0.323787 0 4 tcp 1040 ------- 0 0.0 2.0 36 62
- 0.323787 0 4 tcp 1040 ------- 0 0.0 2.0 36 62
r 0.325243 5 2 tcp 1040 ------- 0 0.0 2.0 26 41
+ 0.325243 2 5 ack 40 ------- 0 2.0 0.0 26 63
- 0.325243 2 5 ack 40 ------- 0 2.0 0.0 26 63
r 0.325957 4 5 tcp 1040 ------- 0 0.0 2.0 27 43
+ 0.325957 5 2 tcp 1040 ------- 0 0.0 2.0 27 43
- 0.325957 5 2 tcp 1040 ------- 0 0.0 2.0 27 43
r 0.326619 0 4 tcp 1040 ------- 0 0.0 2.0 36 62
+ 0.326619 4 5 tcp 1040 ------- 0 0.0 2.0 36 62
r 0.327301 5 4 ack 40 ------- 0 2.0 0.0 22 55
+ 0.327301 4 0 ack 40 ------- 0 2.0 0.0 22 55
- 0.327301 4 0 ack 40 ------- 0 2.0 0.0 22 55
- 0.328144 4 5 tcp 1040 ------- 0 0.0 2.0 32 54
r 0.329275 2 5 ack 40 ------- 0 2.0 0.0 26 63
+ 0.329275 5 4 ack 40 ------- 0 2.0 0.0 26 63
- 0.329275 5 4 ack 40 ------- 0 2.0 0.0 26 63
r 0.329333 4 0 ack 40 ------- 0 2.0 0.0 22 55
+ 0.329333 0 4 tcp 1040 ------- 0 0.0 2.0 37 64
- 0.329333 0 4 tcp 1040 ------- 0 0.0 2.0 37 64
r 0.330789 5 2 tcp 1040 ------- 0 0.0 2.0 27 43
+ 0.330789 2 5 ack 40 ------- 0 2.0 0.0 27 65
- 0.330789 2 5 ack 40 ------- 0 2.0 0.0 27 65
r 0.331504 4 5 tcp 1040 ------- 0 0.0 2.0 28 44
+ 0.331504 5 2 tcp 1040 ------- 0 0.0 2.0 28 44
- 0.331504 5 2 tcp 1040 ------- 0 0.0 2.0 28 44
r 0.332165 0 4 tcp 1040 ------- 0 0.0 2.0 37 64
+ 0.332165 4 5 tcp 1040 ------- 0 0.0 2.0 37 64
r 0.332848 5 4 ack 40 ------- 0 2.0 0.0 23 57
+ 0.332848 4 0 ack 40 ------- 0 2.0 0.0 23 57
- 0.332848 4 0 ack 40 ------- 0 2.0 0.0 23 57
- 0.333691 4 5 tcp 1040 ------- 0 0.0 2.0 33 56
r 0.334821 2 5 ack 40 ------- 0 2.0 0.0 27 65
+ 0.334821 5 4 ack 40 ------- 0 2.0 0.0 27 65
- 0.334821 5 4 ack 40 ------- 0 2.0 0.0 27 65
r 0.33488 4 0 ack 40 ------- 0 2.0 0.0 23 57
+ 0.33488 0 4 tcp 1040 ------- 0 0.0 2.0 38 66
- 0.33488 0 4 tcp 1040 ------- 0 0.0 2.0 38 66
r 0.336336 5 2 tcp 1040 ------- 0 0.0 2.0 28 44
+ 0.336336 2 5 ack 40 ------- 0 2.0 0.0 28 67
- 0.336336 2 5 ack 40 ------- 0 2.0 0.0 28 67
r 0.337051 4 5 tcp 1040 ------- 0 0.0 2.0 29 46
+ 0.337051 5 2 tcp 1040 ------- 0 0.0 2.0 29 46
- 0.337051 5 2 tcp 1040 ------- 0 0.0 2.0 29 46
r 0.337712 0 4 tcp 1040 ------- 0 0.0 2.0 38 66
+ 0.337712 4 5 tcp 1040 ------- 0 0.0 2.0 38 66
r 0.338395 5 4 ack 40 ------- 0 2.0 0.0 24 59
+ 0.338395 4 0 ack 40 ------- 0 2.0 0.0 24 59
- 0.338395 4 0 ack 40 ------- 0 2.0 0.0 24 59
- 0.339237 4 5 tcp 1040 ------- 0 0.0 2.0 34 58
r 0.340368 2 5 ack 40 ------- 0 2.0 0.0 28 67
+ 0.340368 5 4 ack 40 ------- 0 2.0 0.0 28 67
- 0.340368 5 4 ack 40 ------- 0 2.0 0.0 28 67
r 0.340427 4 0 ack 40 ------- 0 2.0 0.0 24 59
+ 0.340427 0 4 tcp 1040 ------- 0 0.0 2.0 39 68
- 0.340427 0 4 tcp 1040 ------- 0 0.0 2.0 39 68
r 0.341883 5 2 tcp 1040 ------- 0 0.0 2.0 29 46
+ 0.341883 2 5 ack 40 ------- 0 2.0 0.0 29 69
- 0.341883 2 5 ack 40 ------- 0 2.0 0.0 29 69
r 0.342597 4 5 tcp 1040 ------- 0 0.0 2.0 30 50
+ 0.342597 5 2 tcp 1040 ------- 0 0.0 2.0 30 50
- 0.342597 5 2 tcp 1040 ------- 0 0.0 2.0 30 50
r 0.343259 0 4 tcp 1040 ------- 0 0.0 2.0 39 68
+ 0.343259 4 5 tcp 1040 ------- 0 0.0 2.0 39 68
r 0.343941 5 4 ack 40 ------- 0 2.0 0.0 25 61
+ 0.343941 4 0 ack 40 ------- 0 2.0 0.0 25 61
- 0.343941 4 0 ack 40 ------- 0 2.0 0.0 25 61
- 0.344784 4 5 tcp 1040 ------- 0 0.0 2.0 35 60
r 0.345915 2 5 ack 40 ------- 0 2.0 0.0 29 69
+ 0.345915 5 4 ack 40 ------- 0 2.0 0.0 29 69
- 0.345915 5 4 ack 40 ------- 0 2.0 0.0 29 69
r 0.345973 4 0 ack 40 ------- 0 2.0 0.0 25 61
+ 0.345973 0 4 tcp 1040 ------- 0 0.0 2.0 40 70
- 0.345973 0 4 tcp 1040 ------- 0 0.0 2.0 40 70
r 0.347429 5 2 tcp 1040 ------- 0 0.0 2.0 30 50
+ 0.347429 2 5 ack 40 ------- 0 2.0 0.0 30 71
- 0.347429 2 5 ack 40 ------- 0 2.0 0.0 30 71
r 0.348144 4 5 tcp 1040 ------- 0 0.0 2.0 31 52
+ 0.348144 5 2 tcp 1040 ------- 0 0.0 2.0 31 52
- 0.348144 5 2 tcp 1040 ------- 0 0.0 2.0 31 52
r 0.348805 0 4 tcp 1040 ------- 0 0.0 2.0 40 70
+ 0.348805 4 5 tcp 1040 ------- 0 0.0 2.0 40 70
r 0.349488 5 4 ack 40 ------- 0 2.0 0.0 26 63
+ 0.349488 4 0 ack 40 ------- 0 2.0 0.0 26 63
- 0.349488 4 0 ack 40 ------- 0 2.0 0.0 26 63
- 0.350331 4 5 tcp 1040 ------- 0 0.0 2.0 36 62
r 0.351461 2 5 ack 40 ------- 0 2.0 0.0 30 71
+ 0.351461 5 4 ack 40 ------- 0 2.0 0.0 30 71
- 0.351461 5 4 ack 40 ------- 0 2.0 0.0 30 71
r 0.35152 4 0 ack 40 ------- 0 2.0 0.0 26 63
+ 0.35152 0 4 tcp 1040 ------- 0 0.0 2.0 41 72
- 0.35152 0 4 tcp 1040 ------- 0 0.0 2.0 41 72
r 0.352976 5 2 tcp 1040 ------- 0 0.0 2.0 31 52
+ 0.352976 2 5 ack 40 ------- 0 2.0 0.0 31 73
- 0.352976 2 5 ack 40 ------- 0 2.0 0.0 31 73
r 0.353691 4 5 tcp 1040 ------- 0 0.0 2.0 32 54
+ 0.353691 5 2 tcp 1040 ------- 0 0.0 2.0 32 54
- 0.353691 5 2 tcp 1040 ------- 0 0.0 2.0 32 54
r 0.354352 0 4 tcp 1040 ------- 0 0.0 2.0 41 72
+ 0.354352 4 5 tcp 1040 ------- 0 0.0 2.0 41 72
r 0.355035 5 4 ack 40 ------- 0 2.0 0.0 27 65
+ 0.355035 4 0 ack 40 ------- 0 2.0 0.0 27 65
- 0.355035 4 0 ack 40 ------- 0 2.0 0.0 27 65
- 0.355877 4 5 tcp 1040 ------- 0 0.0 2.0 37 64
r 0.357008 2 5 ack 40 ------- 0 2.0 0.0 31 73
+ 0.357008 5 4 ack 40 ------- 0 2.0 0.0 31 73
- 0.357008 5 4 ack 40 ------- 0 2.0 0.0 31 73
r 0.357067 4 0 ack 40 ------- 0 2.0 0.0 27 65
+ 0.357067 0 4 tcp 1040 ------- 0 0.0 2.0 42 74
- 0.357067 0 4 tcp 1040 ------- 0 0.0 2.0 42 74
r 0.358523 5 2 tcp 1040 ------- 0 0.0 2.0 32 54
+ 0.358523 2 5 ack 40 ------- 0 2.0 0.0 32 75
- 0.358523 2 5 ack 40 ------- 0 2.0 0.0 32 75
r 0.359237 4 5 tcp 1040 ------- 0 0.0 2.0 33 56
+ 0.359237 5 2 tcp 1040 ------- 0 0.0 2.0 33 56
- 0.359237 5 2 tcp 1040 ------- 0 0.0 2.0 33 56
r 0.359899 0 4 tcp 1040 ------- 0 0.0 2.0 42 74
+ 0.359899 4 5 tcp 1040 ------- 0 0.0 2.0 42 74
r 0.360581 5 4 ack 40 ------- 0 2.0 0.0 28 67
+ 0.360581 4 0 ack 40 ------- 0 2.0 0.0 28 67
- 0.360581 4 0 ack 40 ------- 0 2.0 0.0 28 67
- 0.361424 4 5 tcp 1040 ------- 0 0.0 2.0 38 66
r 0.362555 2 5 ack 40 ------- 0 2.0 0.0 32 75
+ 0.362555 5 4 ack 40 ------- 0 2.0 0.0 32 75
- 0.362555 5 4 ack 40 ------- 0 2.0 0.0 32 75
r 0.362613 4 0 ack 40 ------- 0 2.0 0.0 28 67
+ 0.362613 0 4 tcp 1040 ------- 0 0.0 2.0 43 76
- 0.362613 0 4 tcp 1040 ------- 0 0.0 2.0 43 76
r 0.364069 5 2 tcp 1040 ------- 0 0.0 2.0 33 56
+ 0.364069 2 5 ack 40 ------- 0 2.0 0.0 33 77
- 0.364069 2 5 ack 40 ------- 0 2.0 0.0 33 77
r 0.364784 4 5 tcp 1040 ------- 0 0.0 2.0 34 58
+ 0.364784 5 2 tcp 1040 ------- 0 0.0 2.0 34 58
- 0.364784 5 2 tcp 1040 ------- 0 0.0 2.0 34 58
r 0.365445 0 4 tcp 1040 ------- 0 0.0 2.0 43 76
+ 0.365445 4 5 tcp 1040 ------- 0 0.0 2.0 43 76
r 0.366128 5 4 ack 40 ------- 0 2.0 0.0 29 69
+ 0.366128 4 0 ack 40 ------- 0 2.0 0.0 29 69
- 0.366128 4 0 ack 40 ------- 0 2.0 0.0 29 69
- 0.366971 4 5 tcp 1040 ------- 0 0.0 2.0 39 68
r 0.368101 2 5 ack 40 ------- 0 2.0 0.0 33 77
+ 0.368101 5 4 ack 40 ------- 0 2.0 0.0 33 77
- 0.368101 5 4 ack 40 ------- 0 2.0 0.0 33 77